# vtk DataFile Version 2.0
Unstructured Grid Example
ASCII
DATASET UNSTRUCTURED_GRID

POINTS 40401 float
0 0 0 
1 0 0 
1 1 0 
0 1 0 
0.005 0 0 
0.01 0 0 
0.015 0 0 
0.02 0 0 
0.025 0 0 
0.03 0 0 
0.035 0 0 
0.04 0 0 
0.045 0 0 
0.05 0 0 
0.055 0 0 
0.06 0 0 
0.065 0 0 
0.07 0 0 
0.075 0 0 
0.08 0 0 
0.085 0 0 
0.09 0 0 
0.095 0 0 
0.1 0 0 
0.105 0 0 
0.11 0 0 
0.115 0 0 
0.12 0 0 
0.125 0 0 
0.13 0 0 
0.135 0 0 
0.14 0 0 
0.145 0 0 
0.15 0 0 
0.155 0 0 
0.16 0 0 
0.165 0 0 
0.17 0 0 
0.175 0 0 
0.18 0 0 
0.185 0 0 
0.19 0 0 
0.195 0 0 
0.2 0 0 
0.205 0 0 
0.21 0 0 
0.215 0 0 
0.22 0 0 
0.225 0 0 
0.23 0 0 
0.235 0 0 
0.24 0 0 
0.245 0 0 
0.25 0 0 
0.255 0 0 
0.26 0 0 
0.265 0 0 
0.27 0 0 
0.275 0 0 
0.28 0 0 
0.285 0 0 
0.29 0 0 
0.295 0 0 
0.3 0 0 
0.305 0 0 
0.31 0 0 
0.315 0 0 
0.32 0 0 
0.325 0 0 
0.33 0 0 
0.335 0 0 
0.34 0 0 
0.345 0 0 
0.35 0 0 
0.355 0 0 
0.36 0 0 
0.365 0 0 
0.37 0 0 
0.375 0 0 
0.38 0 0 
0.385 0 0 
0.39 0 0 
0.395 0 0 
0.4 0 0 
0.405 0 0 
0.41 0 0 
0.415 0 0 
0.42 0 0 
0.425 0 0 
0.43 0 0 
0.435 0 0 
0.44 0 0 
0.445 0 0 
0.45 0 0 
0.455 0 0 
0.46 0 0 
0.465 0 0 
0.47 0 0 
0.475 0 0 
0.48 0 0 
0.485 0 0 
0.49 0 0 
0.495 0 0 
0.5 0 0 
0.505 0 0 
0.51 0 0 
0.515 0 0 
0.52 0 0 
0.525 0 0 
0.53 0 0 
0.535 0 0 
0.54 0 0 
0.545 0 0 
0.55 0 0 
0.555 0 0 
0.56 0 0 
0.565 0 0 
0.57 0 0 
0.575 0 0 
0.58 0 0 
0.585 0 0 
0.59 0 0 
0.595 0 0 
0.6 0 0 
0.605 0 0 
0.61 0 0 
0.615 0 0 
0.62 0 0 
0.625 0 0 
0.63 0 0 
0.635 0 0 
0.64 0 0 
0.645 0 0 
0.65 0 0 
0.655 0 0 
0.66 0 0 
0.665 0 0 
0.67 0 0 
0.675 0 0 
0.68 0 0 
0.685 0 0 
0.69 0 0 
0.695 0 0 
0.7 0 0 
0.705 0 0 
0.71 0 0 
0.715 0 0 
0.72 0 0 
0.725 0 0 
0.73 0 0 
0.735 0 0 
0.74 0 0 
0.745 0 0 
0.75 0 0 
0.755 0 0 
0.76 0 0 
0.765 0 0 
0.77 0 0 
0.775 0 0 
0.78 0 0 
0.785 0 0 
0.79 0 0 
0.795 0 0 
0.8 0 0 
0.805 0 0 
0.81 0 0 
0.815 0 0 
0.82 0 0 
0.825 0 0 
0.83 0 0 
0.835 0 0 
0.84 0 0 
0.845 0 0 
0.85 0 0 
0.855 0 0 
0.86 0 0 
0.865 0 0 
0.87 0 0 
0.875 0 0 
0.88 0 0 
0.885 0 0 
0.89 0 0 
0.895 0 0 
0.9 0 0 
0.905 0 0 
0.91 0 0 
0.915 0 0 
0.92 0 0 
0.925 0 0 
0.93 0 0 
0.935 0 0 
0.94 0 0 
0.945 0 0 
0.95 0 0 
0.955 0 0 
0.96 0 0 
0.965 0 0 
0.97 0 0 
0.975 0 0 
0.98 0 0 
0.985 0 0 
0.99 0 0 
0.995 0 0 
1 0.005 0 
1 0.01 0 
1 0.015 0 
1 0.02 0 
1 0.025 0 
1 0.03 0 
1 0.035 0 
1 0.04 0 
1 0.045 0 
1 0.05 0 
1 0.055 0 
1 0.06 0 
1 0.065 0 
1 0.07 0 
1 0.075 0 
1 0.08 0 
1 0.085 0 
1 0.09 0 
1 0.095 0 
1 0.1 0 
1 0.105 0 
1 0.11 0 
1 0.115 0 
1 0.12 0 
1 0.125 0 
1 0.13 0 
1 0.135 0 
1 0.14 0 
1 0.145 0 
1 0.15 0 
1 0.155 0 
1 0.16 0 
1 0.165 0 
1 0.17 0 
1 0.175 0 
1 0.18 0 
1 0.185 0 
1 0.19 0 
1 0.195 0 
1 0.2 0 
1 0.205 0 
1 0.21 0 
1 0.215 0 
1 0.22 0 
1 0.225 0 
1 0.23 0 
1 0.235 0 
1 0.24 0 
1 0.245 0 
1 0.25 0 
1 0.255 0 
1 0.26 0 
1 0.265 0 
1 0.27 0 
1 0.275 0 
1 0.28 0 
1 0.285 0 
1 0.29 0 
1 0.295 0 
1 0.3 0 
1 0.305 0 
1 0.31 0 
1 0.315 0 
1 0.32 0 
1 0.325 0 
1 0.33 0 
1 0.335 0 
1 0.34 0 
1 0.345 0 
1 0.35 0 
1 0.355 0 
1 0.36 0 
1 0.365 0 
1 0.37 0 
1 0.375 0 
1 0.38 0 
1 0.385 0 
1 0.39 0 
1 0.395 0 
1 0.4 0 
1 0.405 0 
1 0.41 0 
1 0.415 0 
1 0.42 0 
1 0.425 0 
1 0.43 0 
1 0.435 0 
1 0.44 0 
1 0.445 0 
1 0.45 0 
1 0.455 0 
1 0.46 0 
1 0.465 0 
1 0.47 0 
1 0.475 0 
1 0.48 0 
1 0.485 0 
1 0.49 0 
1 0.495 0 
1 0.5 0 
1 0.505 0 
1 0.51 0 
1 0.515 0 
1 0.52 0 
1 0.525 0 
1 0.53 0 
1 0.535 0 
1 0.54 0 
1 0.545 0 
1 0.55 0 
1 0.555 0 
1 0.56 0 
1 0.565 0 
1 0.57 0 
1 0.575 0 
1 0.58 0 
1 0.585 0 
1 0.59 0 
1 0.595 0 
1 0.6 0 
1 0.605 0 
1 0.61 0 
1 0.615 0 
1 0.62 0 
1 0.625 0 
1 0.63 0 
1 0.635 0 
1 0.64 0 
1 0.645 0 
1 0.65 0 
1 0.655 0 
1 0.66 0 
1 0.665 0 
1 0.67 0 
1 0.675 0 
1 0.68 0 
1 0.685 0 
1 0.69 0 
1 0.695 0 
1 0.7 0 
1 0.705 0 
1 0.71 0 
1 0.715 0 
1 0.72 0 
1 0.725 0 
1 0.73 0 
1 0.735 0 
1 0.74 0 
1 0.745 0 
1 0.75 0 
1 0.755 0 
1 0.76 0 
1 0.765 0 
1 0.77 0 
1 0.775 0 
1 0.78 0 
1 0.785 0 
1 0.79 0 
1 0.795 0 
1 0.8 0 
1 0.805 0 
1 0.81 0 
1 0.815 0 
1 0.82 0 
1 0.825 0 
1 0.83 0 
1 0.835 0 
1 0.84 0 
1 0.845 0 
1 0.85 0 
1 0.855 0 
1 0.86 0 
1 0.865 0 
1 0.87 0 
1 0.875 0 
1 0.88 0 
1 0.885 0 
1 0.89 0 
1 0.895 0 
1 0.9 0 
1 0.905 0 
1 0.91 0 
1 0.915 0 
1 0.92 0 
1 0.925 0 
1 0.93 0 
1 0.935 0 
1 0.94 0 
1 0.945 0 
1 0.95 0 
1 0.955 0 
1 0.96 0 
1 0.965 0 
1 0.97 0 
1 0.975 0 
1 0.98 0 
1 0.985 0 
1 0.99 0 
1 0.995 0 
0.995 1 0 
0.99 1 0 
0.985 1 0 
0.98 1 0 
0.975 1 0 
0.97 1 0 
0.965 1 0 
0.96 1 0 
0.955 1 0 
0.95 1 0 
0.945 1 0 
0.94 1 0 
0.935 1 0 
0.93 1 0 
0.925 1 0 
0.92 1 0 
0.915 1 0 
0.91 1 0 
0.905 1 0 
0.9 1 0 
0.895 1 0 
0.89 1 0 
0.885 1 0 
0.88 1 0 
0.875 1 0 
0.87 1 0 
0.865 1 0 
0.86 1 0 
0.855 1 0 
0.85 1 0 
0.845 1 0 
0.84 1 0 
0.835 1 0 
0.83 1 0 
0.825 1 0 
0.82 1 0 
0.815 1 0 
0.81 1 0 
0.805 1 0 
0.8 1 0 
0.795 1 0 
0.79 1 0 
0.785 1 0 
0.78 1 0 
0.775 1 0 
0.77 1 0 
0.765 1 0 
0.76 1 0 
0.755 1 0 
0.75 1 0 
0.745 1 0 
0.74 1 0 
0.735 1 0 
0.73 1 0 
0.725 1 0 
0.72 1 0 
0.715 1 0 
0.71 1 0 
0.705 1 0 
0.7 1 0 
0.695 1 0 
0.69 1 0 
0.685 1 0 
0.68 1 0 
0.675 1 0 
0.67 1 0 
0.665 1 0 
0.66 1 0 
0.655 1 0 
0.65 1 0 
0.645 1 0 
0.64 1 0 
0.635 1 0 
0.63 1 0 
0.625 1 0 
0.62 1 0 
0.615 1 0 
0.61 1 0 
0.605 1 0 
0.6 1 0 
0.595 1 0 
0.59 1 0 
0.585 1 0 
0.58 1 0 
0.575 1 0 
0.57 1 0 
0.565 1 0 
0.56 1 0 
0.555 1 0 
0.55 1 0 
0.545 1 0 
0.54 1 0 
0.535 1 0 
0.53 1 0 
0.525 1 0 
0.52 1 0 
0.515 1 0 
0.51 1 0 
0.505 1 0 
0.5 1 0 
0.495 1 0 
0.49 1 0 
0.485 1 0 
0.48 1 0 
0.475 1 0 
0.47 1 0 
0.465 1 0 
0.46 1 0 
0.455 1 0 
0.45 1 0 
0.445 1 0 
0.44 1 0 
0.435 1 0 
0.43 1 0 
0.425 1 0 
0.42 1 0 
0.415 1 0 
0.41 1 0 
0.405 1 0 
0.4 1 0 
0.395 1 0 
0.39 1 0 
0.385 1 0 
0.38 1 0 
0.375 1 0 
0.37 1 0 
0.365 1 0 
0.36 1 0 
0.355 1 0 
0.35 1 0 
0.345 1 0 
0.34 1 0 
0.335 1 0 
0.33 1 0 
0.325 1 0 
0.32 1 0 
0.315 1 0 
0.31 1 0 
0.305 1 0 
0.3 1 0 
0.295 1 0 
0.29 1 0 
0.285 1 0 
0.28 1 0 
0.275 1 0 
0.27 1 0 
0.265 1 0 
0.26 1 0 
0.255 1 0 
0.25 1 0 
0.245 1 0 
0.24 1 0 
0.235 1 0 
0.23 1 0 
0.225 1 0 
0.22 1 0 
0.215 1 0 
0.21 1 0 
0.205 1 0 
0.2 1 0 
0.195 1 0 
0.19 1 0 
0.185 1 0 
0.18 1 0 
0.175 1 0 
0.17 1 0 
0.165 1 0 
0.16 1 0 
0.155 1 0 
0.15 1 0 
0.145 1 0 
0.14 1 0 
0.135 1 0 
0.13 1 0 
0.125 1 0 
0.12 1 0 
0.115 1 0 
0.11 1 0 
0.105 1 0 
0.1 1 0 
0.095 1 0 
0.09 1 0 
0.085 1 0 
0.08 1 0 
0.075 1 0 
0.07 1 0 
0.065 1 0 
0.06 1 0 
0.055 1 0 
0.05 1 0 
0.045 1 0 
0.04 1 0 
0.035 1 0 
0.03 1 0 
0.025 1 0 
0.02 1 0 
0.015 1 0 
0.01 1 0 
0.005 1 0 
0 0.995 0 
0 0.99 0 
0 0.985 0 
0 0.98 0 
0 0.975 0 
0 0.97 0 
0 0.965 0 
0 0.96 0 
0 0.955 0 
0 0.95 0 
0 0.945 0 
0 0.94 0 
0 0.935 0 
0 0.93 0 
0 0.925 0 
0 0.92 0 
0 0.915 0 
0 0.91 0 
0 0.905 0 
0 0.9 0 
0 0.895 0 
0 0.89 0 
0 0.885 0 
0 0.88 0 
0 0.875 0 
0 0.87 0 
0 0.865 0 
0 0.86 0 
0 0.855 0 
0 0.85 0 
0 0.845 0 
0 0.84 0 
0 0.835 0 
0 0.83 0 
0 0.825 0 
0 0.82 0 
0 0.815 0 
0 0.81 0 
0 0.805 0 
0 0.8 0 
0 0.795 0 
0 0.79 0 
0 0.785 0 
0 0.78 0 
0 0.775 0 
0 0.77 0 
0 0.765 0 
0 0.76 0 
0 0.755 0 
0 0.75 0 
0 0.745 0 
0 0.74 0 
0 0.735 0 
0 0.73 0 
0 0.725 0 
0 0.72 0 
0 0.715 0 
0 0.71 0 
0 0.705 0 
0 0.7 0 
0 0.695 0 
0 0.69 0 
0 0.685 0 
0 0.68 0 
0 0.675 0 
0 0.67 0 
0 0.665 0 
0 0.66 0 
0 0.655 0 
0 0.65 0 
0 0.645 0 
0 0.64 0 
0 0.635 0 
0 0.63 0 
0 0.625 0 
0 0.62 0 
0 0.615 0 
0 0.61 0 
0 0.605 0 
0 0.6 0 
0 0.595 0 
0 0.59 0 
0 0.585 0 
0 0.58 0 
0 0.575 0 
0 0.57 0 
0 0.565 0 
0 0.56 0 
0 0.555 0 
0 0.55 0 
0 0.545 0 
0 0.54 0 
0 0.535 0 
0 0.53 0 
0 0.525 0 
0 0.52 0 
0 0.515 0 
0 0.51 0 
0 0.505 0 
0 0.5 0 
0 0.495 0 
0 0.49 0 
0 0.485 0 
0 0.48 0 
0 0.475 0 
0 0.47 0 
0 0.465 0 
0 0.46 0 
0 0.455 0 
0 0.45 0 
0 0.445 0 
0 0.44 0 
0 0.435 0 
0 0.43 0 
0 0.425 0 
0 0.42 0 
0 0.415 0 
0 0.41 0 
0 0.405 0 
0 0.4 0 
0 0.395 0 
0 0.39 0 
0 0.385 0 
0 0.38 0 
0 0.375 0 
0 0.37 0 
0 0.365 0 
0 0.36 0 
0 0.355 0 
0 0.35 0 
0 0.345 0 
0 0.34 0 
0 0.335 0 
0 0.33 0 
0 0.325 0 
0 0.32 0 
0 0.315 0 
0 0.31 0 
0 0.305 0 
0 0.3 0 
0 0.295 0 
0 0.29 0 
0 0.285 0 
0 0.28 0 
0 0.275 0 
0 0.27 0 
0 0.265 0 
0 0.26 0 
0 0.255 0 
0 0.25 0 
0 0.245 0 
0 0.24 0 
0 0.235 0 
0 0.23 0 
0 0.225 0 
0 0.22 0 
0 0.215 0 
0 0.21 0 
0 0.205 0 
0 0.2 0 
0 0.195 0 
0 0.19 0 
0 0.185 0 
0 0.18 0 
0 0.175 0 
0 0.17 0 
0 0.165 0 
0 0.16 0 
0 0.155 0 
0 0.15 0 
0 0.145 0 
0 0.14 0 
0 0.135 0 
0 0.13 0 
0 0.125 0 
0 0.12 0 
0 0.115 0 
0 0.11 0 
0 0.105 0 
0 0.1 0 
0 0.095 0 
0 0.09 0 
0 0.085 0 
0 0.08 0 
0 0.075 0 
0 0.07 0 
0 0.065 0 
0 0.06 0 
0 0.055 0 
0 0.05 0 
0 0.045 0 
0 0.04 0 
0 0.035 0 
0 0.03 0 
0 0.025 0 
0 0.02 0 
0 0.015 0 
0 0.01 0 
0 0.005 0 
0.995 0.995 0 
0.995 0.99 0 
0.995 0.985 0 
0.995 0.98 0 
0.995 0.975 0 
0.995 0.97 0 
0.995 0.965 0 
0.995 0.96 0 
0.995 0.955 0 
0.995 0.95 0 
0.995 0.945 0 
0.995 0.94 0 
0.995 0.935 0 
0.995 0.93 0 
0.995 0.925 0 
0.995 0.92 0 
0.995 0.915 0 
0.995 0.91 0 
0.995 0.905 0 
0.995 0.9 0 
0.995 0.895 0 
0.995 0.89 0 
0.995 0.885 0 
0.995 0.88 0 
0.995 0.875 0 
0.995 0.87 0 
0.995 0.865 0 
0.995 0.86 0 
0.995 0.855 0 
0.995 0.85 0 
0.995 0.845 0 
0.995 0.84 0 
0.995 0.835 0 
0.995 0.83 0 
0.995 0.825 0 
0.995 0.82 0 
0.995 0.815 0 
0.995 0.81 0 
0.995 0.805 0 
0.995 0.8 0 
0.995 0.795 0 
0.995 0.79 0 
0.995 0.785 0 
0.995 0.78 0 
0.995 0.775 0 
0.995 0.77 0 
0.995 0.765 0 
0.995 0.76 0 
0.995 0.755 0 
0.995 0.75 0 
0.995 0.745 0 
0.995 0.74 0 
0.995 0.735 0 
0.995 0.73 0 
0.995 0.725 0 
0.995 0.72 0 
0.995 0.715 0 
0.995 0.71 0 
0.995 0.705 0 
0.995 0.7 0 
0.995 0.695 0 
0.995 0.69 0 
0.995 0.685 0 
0.995 0.68 0 
0.995 0.675 0 
0.995 0.67 0 
0.995 0.665 0 
0.995 0.66 0 
0.995 0.655 0 
0.995 0.65 0 
0.995 0.645 0 
0.995 0.64 0 
0.995 0.635 0 
0.995 0.63 0 
0.995 0.625 0 
0.995 0.62 0 
0.995 0.615 0 
0.995 0.61 0 
0.995 0.605 0 
0.995 0.6 0 
0.995 0.595 0 
0.995 0.59 0 
0.995 0.585 0 
0.995 0.58 0 
0.995 0.575 0 
0.995 0.57 0 
0.995 0.565 0 
0.995 0.56 0 
0.995 0.555 0 
0.995 0.55 0 
0.995 0.545 0 
0.995 0.54 0 
0.995 0.535 0 
0.995 0.53 0 
0.995 0.525 0 
0.995 0.52 0 
0.995 0.515 0 
0.995 0.51 0 
0.995 0.505 0 
0.995 0.5 0 
0.995 0.495 0 
0.995 0.49 0 
0.995 0.485 0 
0.995 0.48 0 
0.995 0.475 0 
0.995 0.47 0 
[...]
CELL_DATA 40000
SCALARS u float 1
LOOKUP_TABLE default
0
0
0
0
0
0
0
0
0
0
0
0
0
0
0
0
0
0
0
0
0
0
0
0
0
0
0
0
0
0
0
0
0
0
0
0
0
0
0
0
0
0
0
0
0
0
0
0
0
0
0
0
0
0
0
0
0
0
0
0
0
0
0
0
0
0
0
0
0
0
0
0
0
0
0
0
0
0
0
0
0
0
0
0
0
0
0
0
0
0
0
0
0
0
0
0
0
0
0
0
0
0
0
0
0
0
0
3.88781e-76
1.5593e-74
2.90025e-73
3.31714e-72
2.60836e-71
1.49365e-70
6.43866e-70
2.13152e-69
5.48815e-69
1.10983e-68
1.78494e-68
2.33888e-68
2.61663e-68
2.68091e-68
2.68091e-68
2.68091e-68
2.68091e-68
2.68091e-68
2.68091e-68
2.68091e-68
2.68091e-68
2.68091e-68
2.68091e-68
2.68091e-68
2.68091e-68
2.68091e-68
2.68091e-68
2.68091e-68
2.68091e-68
2.68091e-68
2.68091e-68
2.68091e-68
2.68091e-68
2.68091e-68
2.68091e-68
2.68091e-68
2.68091e-68
2.68091e-68
2.68091e-68
2.68091e-68
2.68091e-68
2.68091e-68
2.68088e-68
2.68058e-68
2.6783e-68
2.66597e-68
2.61652e-68
2.46776e-68
2.13209e-68
1.57108e-68
8.95963e-69
3.42031e-69
6.42791e-70
0
0
0
0
0
0
0
0
0
0
0
0
0
0
0
0
0
0
0
0
0
0
0
0
0
0
0
0
0
0
0
0
0
0
0
0
0
0
0
0
0
0
0
0
0
0
0
0
0
0
0
0
0
0
0
0
0
0
0
0
0
0
0
0
0
0
0
0
0
0
0
0
0
0
0
0
0
0
0
0
0
0
0
0
0
0
0
0
0
0
0
0
0
0
0
0
0
0
0
0
0
0
0
0
0
0
0
0
0
0
0
0
0
0
0
0
0
0
0
0
0
0
0
0
0
0
0
0
0
0
0
0
0
0
0
0
0
0
0
0
0
0
0
0
0
0
3.33241e-75
1.43682e-73
2.88813e-72
3.59135e-71
3.09136e-70
1.95307e-69
9.37162e-69
3.48785e-68
1.02024e-67
2.36695e-67
4.39277e-67
6.60907e-67
8.27606e-67
9.04765e-67
9.21346e-67
9.21346e-67
9.21346e-67
9.21346e-67
9.21346e-67
9.21346e-67
9.21346e-67
9.21346e-67
9.21346e-67
9.21346e-67
9.21346e-67
9.21346e-67
9.21346e-67
9.21346e-67
9.21346e-67
9.21346e-67
9.21346e-67
9.21346e-67
9.21346e-67
9.21346e-67
9.21346e-67
9.21346e-67
9.21346e-67
9.21346e-67
9.21346e-67
9.21346e-67
9.21346e-67
9.21346e-67
9.21343e-67
9.2131e-67
9.21037e-67
9.19393e-67
9.11975e-67
8.86468e-67
8.19323e-67
6.84651e-67
4.82069e-67
2.60439e-67
9.37403e-68
1.65816e-68
0
0
0
0
0
0
0
0
0
0
0
0
0
0
0
0
0
0
0
0
0
0
0
0
0
0
0
0
0
0
0
0
0
0
0
0
0
0
0
0
0
0
0
0
0
0
0
0
0
0
0
0
0
0
0
0
0
0
0
0
0
0
0
0
0
0
0
0
0
0
0
0
0
0
0
0
0
0
0
0
0
0
0
0
0
0
0
0
0
0
0
0
0
0
0
0
0
0
0
0
0
0
0
0
0
0
0
0
0
0
0
0
0
0
0
0
0
0
0
0
0
0
0
0
0
0
0
0
0
0
0
0
0
0
0
0
0
0
0
0
0
0
0
0
0
2.64371e-74
1.21944e-72
2.63429e-71
3.53867e-70
3.30991e-69
2.28751e-68
1.20979e-67
5.00456e-67
1.64214e-66
4.3137e-66
9.13631e-66
1.57315e-65
2.23458e-65
2.69382e-65
2.89121e-65
2.9308e-65
2.9308e-65
2.9308e-65
2.9308e-65
2.9308e-65
2.9308e-65
2.9308e-65
2.9308e-65
2.9308e-65
2.9308e-65
2.9308e-65
2.9308e-65
2.9308e-65
2.9308e-65
2.9308e-65
2.9308e-65
2.9308e-65
2.9308e-65
2.9308e-65
2.9308e-65
2.9308e-65
2.9308e-65
2.9308e-65
2.9308e-65
2.9308e-65
2.9308e-65
2.9308e-65
2.9308e-65
2.93076e-65
2.93047e-65
2.92851e-65
2.9187e-65
2.88075e-65
2.76659e-65
2.49943e-65
2.01717e-65
1.35765e-65
6.96218e-66
2.3698e-66
3.95925e-67
0
0
0
0
0
0
0
0
0
0
0
0
0
0
0
0
0
0
0
0
0
0
0
0
0
0
0
0
0
0
0
0
0
0
0
0
0
0
0
0
0
0
0
0
0
0
0
0
0
0
0
0
0
0
0
0
0
0
0
0
0
0
0
0
0
0
0
0
0
0
0
0
0
0
0
0
0
0
0
0
0
0
0
0
0
0
0
0
0
0
0
0
0
0
0
0
0
0
0
0
0
0
0
0
0
0
0
0
0
0
0
0
0
0
0
0
0
0
0
0
0
0
0
0
0
0
0
0
0
0
0
0
0
0
0
0
0
0
0
0
0
0
0
0
1.94974e-73
9.58015e-72
2.21345e-70
3.19447e-69
3.2265e-68
2.42171e-67
1.39996e-66
6.37617e-66
2.32192e-65
6.82639e-65
1.63132e-64
3.18821e-64
5.13999e-64
6.9469e-64
8.11189e-64
8.57925e-64
8.66714e-64
8.66714e-64
8.66714e-64
8.66714e-64
8.66714e-64
8.66714e-64
8.66714e-64
8.66714e-64
8.66714e-64
8.66714e-64
8.66714e-64
8.66714e-64
8.66714e-64
8.66714e-64
8.66714e-64
8.66714e-64
8.66714e-64
8.66714e-64
8.66714e-64
8.66714e-64
8.66714e-64
8.66714e-64
8.66714e-64
8.66714e-64
8.66714e-64
8.66714e-64
8.66714e-64
8.66711e-64
8.66682e-64
8.66472e-64
8.65314e-64
8.60338e-64
8.43495e-64
7.9845e-64
7.03582e-64
5.47893e-64
3.52715e-64
1.72024e-64
5.55254e-65
8.78891e-66
0
0
0
0
0
0
0
0
0
0
0
0
0
0
0
0
0
0
0
0
0
0
0
0
0
0
0
0
0
0
0
0
0
0
0
0
0
0
0
0
0
0
0
0
0
0
0
0
0
0
0
0
0
0
0
0
0
0
0
0
0
0
0
0
0
0
0
0
0
0
0
0
0
0
0
0
0
0
0
0
0
0
0
0
0
0
0
0
0
0
0
0
0
0
0
0
0
0
0
0
0
0
0
0
0
0
0
0
0
0
0
0
0
0
0
0
0
0
0
0
0
0
0
0
0
0
0
0
0
0
0
0
0
0
0
0
0
0
0
0
0
0
0
1.34188e-72
6.99727e-71
1.72182e-69
2.65705e-68
2.88231e-67
2.33506e-66
1.46515e-65
7.28831e-65
2.91886e-64
9.5081e-64
2.53685e-63
5.57361e-63
1.01421e-62
1.54291e-62
1.99741e-62
2.27092e-62
2.37379e-62
2.392e-62
2.392e-62
2.392e-62
2.392e-62
2.392e-62
2.392e-62
2.392e-62
2.392e-62
2.392e-62
2.392e-62
2.392e-62
2.392e-62
2.392e-62
2.392e-62
2.392e-62
2.392e-62
2.392e-62
2.392e-62
2.392e-62
2.392e-62
2.392e-62
2.392e-62
2.392e-62
2.392e-62
2.392e-62
2.392e-62
2.392e-62
2.39197e-62
2.39177e-62
2.39054e-62
2.38471e-62
2.36281e-62
2.29692e-62
2.13832e-62
1.83464e-62
1.37779e-62
8.49095e-63
3.9459e-63
1.21079e-63
1.82079e-64
0
0
0
0
0
0
0
0
0
0
0
0
0
0
0
0
0
0
0
0
0
0
0
0
0
0
0
0
0
0
0
0
0
0
0
0
0
0
0
0
0
0
0
0
0
0
0
0
0
0
0
0
0
0
0
0
0
0
0
0
0
0
0
0
0
0
0
0
0
0
0
0
0
0
0
0
0
0
0
0
0
0
0
0
0
0
0
0
0
0
0
0
0
0
0
0
0
0
0
0
0
0
0
0
0
0
0
0
0
0
0
0
0
0
0
0
0
0
0
0
0
0
0
0
0
0
0
0
0
0
0
0
0
0
0
0
0
0
0
0
0
0
8.64766e-72
4.76963e-70
1.24534e-68
2.04631e-67
2.37289e-66
2.06392e-65
1.39716e-64
7.53902e-64
3.29484e-63
1.17896e-62
3.47929e-62
8.51303e-62
1.73482e-61
2.96179e-61
4.28032e-61
5.3383e-61
5.9352e-61
6.1465e-61
6.18183e-61
6.18183e-61
6.18183e-61
6.18183e-61
6.18183e-61
6.18183e-61
6.18183e-61
6.18183e-61
6.18183e-61
6.18183e-61
6.18183e-61
6.18183e-61
6.18183e-61
6.18183e-61
6.18183e-61
6.18183e-61
6.18183e-61
6.18183e-61
6.18183e-61
6.18183e-61
6.18183e-61
6.18183e-61
6.18183e-61
6.18183e-61
6.18183e-61
6.18183e-61
6.1818e-61
6.18162e-61
6.18043e-61
6.17429e-61
6.14888e-61
6.06393e-61
5.8339e-61
5.33052e-61
4.44701e-61
3.22004e-61
1.90151e-61
8.43526e-62
2.46628e-62
3.53236e-63
0
0
0
0
0
0
0
0
0
0
0
0
0
0
0
0
0
0
0
0
0
0
0
0
0
0
0
0
0
0
0
0
0
0
0
0
0
0
0
0
0
0
0
0
0
0
0
0
0
0
0
0
0
0
0
0
0
0
0
0
0
0
0
0
0
0
0
0
0
0
0
0
0
0
0
0
0
0
0
0
0
0
0
0
0
0
0
0
0
0
0
0
0
0
0
0
0
0
0
0
0
0
0
0
0
0
0
0
0
0
0
0
0
0
0
0
0
0
0
0
0
0
0
0
0
0
0
0
0
0
0
0
0
0
0
0
0
0
0
0
0
5.23411e-71
3.04443e-69
8.40657e-68
1.46544e-66
1.80904e-65
1.68154e-64
1.22169e-63
7.10868e-63
3.36785e-62
1.3139e-61
4.25396e-61
1.1492e-60
2.60114e-60
4.95362e-60
7.98734e-60
1.10302e-59
1.33193e-59
1.45348e-59
1.49412e-59
1.50056e-59
1.50056e-59
1.50056e-59
1.50056e-59
1.50056e-59
1.50056e-59
1.50056e-59
1.50056e-59
1.50056e-59
1.50056e-59
1.50056e-59
1.50056e-59
1.50056e-59
1.50056e-59
1.50056e-59
1.50056e-59
1.50056e-59
1.50056e-59
1.50056e-59
1.50056e-59
1.50056e-59
1.50056e-59
1.50056e-59
1.50056e-59
1.50056e-59
1.50056e-59
1.50054e-59
1.50044e-59
1.49985e-59
1.49719e-59
1.48742e-59
1.45802e-59
1.38564e-59
1.24045e-59
1.0052e-59
7.01826e-60
3.97538e-60
1.68632e-60
4.70779e-61
6.43664e-62
0
0
0
0
0
0
0
0
0
0
0
0
0
0
0
0
0
0
0
0
0
0
0
0
0
0
0
0
0
0
0
0
0
0
0
0
0
0
0
0
0
0
0
0
0
0
0
0
0
0
0
0
0
0
0
0
0
0
0
0
0
0
0
0
0
0
0
0
0
0
0
0
0
0
0
0
0
0
0
0
0
0
0
0
0
0
0
0
0
0
0
0
0
0
0
0
0
0
0
0
0
0
0
0
0
0
0
0
0
0
0
0
0
0
0
0
0
0
0
0
0
0
0
0
0
0
0
0
0
0
0
0
0
0
0
0
0
0
0
0
2.98344e-70
1.82513e-68
5.31412e-67
9.79547e-66
1.28261e-64
1.26889e-63
9.84898e-63
6.14827e-62
3.13948e-61
1.32683e-60
4.67938e-60
1.38502e-59
3.45469e-59
7.28717e-59
1.30534e-58
1.99939e-58
2.65205e-58
3.11416e-58
3.34592e-58
3.41934e-58
3.43039e-58
3.43039e-58
3.43039e-58
3.43039e-58
3.43039e-58
3.43039e-58
3.43039e-58
3.43039e-58
3.43039e-58
3.43039e-58
3.43039e-58
3.43039e-58
3.43039e-58
3.43039e-58
3.43039e-58
3.43039e-58
3.43039e-58
3.43039e-58
3.43039e-58
3.43039e-58
3.43039e-58
3.43039e-58
3.43039e-58
3.43039e-58
3.43038e-58
3.43037e-58
3.43029e-58
3.42977e-58
3.42725e-58
3.41712e-58
3.38359e-58
3.29188e-58
3.08492e-58
2.70167e-58
2.12505e-58
1.431e-58
7.7834e-59
3.16228e-59
8.44612e-60
1.10463e-60
0
0
0
0
0
0
0
0
0
0
0
0
0
0
0
0
0
0
0
0
0
0
0
0
0
0
0
0
0
0
0
0
0
0
0
0
0
0
0
0
0
0
0
0
0
0
0
0
0
0
0
0
0
0
0
0
0
0
0
0
0
0
0
0
0
0
0
0
0
0
0
0
0
0
0
0
0
0
0
0
0
0
0
0
0
0
0
0
0
0
0
0
0
0
0
0
0
0
0
0
0
0
0
0
0
0
0
0
0
0
0
0
0
0
0
0
0
0
0
0
0
0
0
0
0
0
0
0
0
0
0
0
0
0
0
0
0
0
0
1.60538e-69
1.03042e-67
3.15516e-66
6.13174e-65
8.48844e-64
8.90559e-63
7.35524e-62
4.90387e-61
2.68536e-60
1.22256e-59
4.66745e-59
1.50335e-58
4.10276e-58
9.51803e-58
1.88298e-57
3.19063e-57
4.66628e-57
5.97235e-57
6.84576e-57
7.26077e-57
7.38566e-57
7.40356e-57
7.40356e-57
7.40356e-57
7.40356e-57
7.40356e-57
7.40356e-57
7.40356e-57
7.40356e-57
7.40356e-57
7.40356e-57
7.40356e-57
7.40356e-57
7.40356e-57
7.40356e-57
7.40356e-57
7.40356e-57
7.40356e-57
7.40356e-57
7.40356e-57
7.40356e-57
7.40356e-57
7.40356e-57
7.40356e-57
7.40356e-57
7.40355e-57
7.40349e-57
7.40307e-57
7.40087e-57
7.39133e-57
7.35688e-57
7.25322e-57
6.99328e-57
6.45176e-57
5.52058e-57
4.21292e-57
2.73728e-57
1.43121e-57
5.57797e-58
1.42789e-58
1.78974e-59
0
0
0
0
0
0
0
0
0
0
0
0
0
0
0
0
0
0
0
0
0
0
0
0
0
0
0
0
0
0
0
0
0
0
0
0
0
0
0
0
0
0
0
0
0
0
0
0
0
0
0
0
0
0
0
0
0
0
0
0
0
0
0
0
0
0
0
0
0
0
0
0
0
0
0
0
0
0
0
0
0
0
0
0
0
0
0
0
0
0
0
0
0
0
0
0
0
0
0
0
0
0
0
0
0
0
0
0
0
0
0
0
0
0
0
0
0
0
0
0
0
0
0
0
0
0
0
0
0
0
0
0
0
0
0
0
0
0
8.17283e-69
5.49185e-67
1.76419e-65
3.6052e-64
5.2612e-63
5.8348e-62
5.10948e-61
3.62389e-60
2.11874e-59
1.034e-58
4.2501e-58
1.48078e-57
4.39306e-57
1.11344e-56
2.41759e-56
4.5107e-56
7.26645e-56
1.01934e-55
1.26402e-55
1.41904e-55
1.48901e-55
1.50907e-55
1.51181e-55
1.51181e-55
1.51181e-55
1.51181e-55
1.51181e-55
1.51181e-55
1.51181e-55
1.51181e-55
1.51181e-55
1.51181e-55
1.51181e-55
1.51181e-55
1.51181e-55
1.51181e-55
1.51181e-55
1.51181e-55
1.51181e-55
1.51181e-55
1.51181e-55
1.51181e-55
1.51181e-55
1.51181e-55
1.51181e-55
1.51181e-55
1.51181e-55
1.51178e-55
1.5116e-55
1.51078e-55
1.50756e-55
1.49701e-55
1.46788e-55
1.40047e-55
1.27006e-55
1.06074e-55
7.8517e-56
4.92474e-56
2.47797e-56
9.27784e-57
2.28005e-57
2.74369e-58
0
0
0
0
0
0
0
0
0
0
0
0
0
0
0
0
0
0
0
0
0
0
0
0
0
0
0
0
0
0
0
0
0
0
0
0
0
0
0
0
0
0
0
0
0
0
0
0
0
0
0
0
0
0
0
0
0
0
0
0
0
0
0
0
0
0
0
0
0
0
0
0
0
0
0
0
0
0
0
0
0
0
0
0
0
0
0
0
0
0
0
0
0
0
0
0
0
0
0
0
0
0
0
0
0
0
0
0
0
0
0
0
0
0
0
0
0
0
0
0
0
0
0
0
0
0
0
0
0
0
0
0
0
0
0
0
0
3.94428e-68
2.76917e-66
9.31214e-65
1.99625e-63
3.06296e-62
3.58042e-61
3.31374e-60
2.49139e-59
1.54912e-58
8.06903e-58
3.55371e-57
1.33225e-56
4.27199e-56
1.17576e-55
2.78483e-55
5.69023e-55
1.0062e-54
1.54795e-54
2.09141e-54
2.52181e-54
2.78088e-54
2.89226e-54
2.92273e-54
2.92672e-54
2.92672e-54
2.92672e-54
2.92672e-54
2.92672e-54
2.92672e-54
2.92672e-54
2.92672e-54
2.92672e-54
2.92672e-54
2.92672e-54
2.92672e-54
2.92672e-54
2.92672e-54
2.92672e-54
2.92672e-54
2.92672e-54
2.92672e-54
2.92672e-54
2.92672e-54
2.92672e-54
2.92672e-54
2.92672e-54
2.92672e-54
2.92669e-54
2.92656e-54
2.92591e-54
2.92317e-54
2.9134e-54
2.884e-54
2.80914e-54
2.64824e-54
2.3577e-54
1.92052e-54
1.37877e-54
8.35314e-55
4.04908e-55
1.45844e-55
3.44617e-56
3.98764e-57
0
0
0
0
0
0
0
0
0
0
0
0
0
0
0
0
0
0
0
0
0
0
0
0
0
0
0
0
0
0
0
0
0
0
0
0
0
0
0
0
0
0
0
0
0
0
0
0
0
0
0
0
0
0
0
0
0
0
0
0
0
0
0
0
0
0
0
0
0
0
0
0
0
0
0
0
0
0
0
0
0
0
0
0
0
0
0
0
0
0
0
0
0
0
0
0
0
0
0
0
0
0
0
0
0
0
0
0
0
0
0
0
0
0
0
0
0
0
0
0
0
0
0
0
0
0
0
0
0
0
0
0
0
0
0
0
1.80779e-67
1.32363e-65
4.65022e-64
1.04346e-62
1.67936e-61
2.06374e-60
2.01293e-59
1.59922e-58
1.05386e-57
5.83632e-57
2.74244e-56
1.10109e-55
3.79676e-55
1.12851e-54
2.89919e-54
6.45175e-54
1.24657e-53
2.0983e-53
3.09515e-53
4.04256e-53
4.7554e-53
5.16405e-53
5.33176e-53
5.37565e-53
5.38116e-53
5.38116e-53
5.38116e-53
5.38116e-53
5.38116e-53
5.38116e-53
5.38116e-53
5.38116e-53
5.38116e-53
5.38116e-53
5.38116e-53
5.38116e-53
5.38116e-53
5.38116e-53
5.38116e-53
5.38116e-53
5.38116e-53
5.38116e-53
5.38116e-53
5.38116e-53
5.38116e-53
5.38116e-53
5.38116e-53
5.38114e-53
5.38105e-53
5.38057e-53
5.37842e-53
5.37015e-53
5.34319e-53
5.26831e-53
5.09124e-53
4.73598e-53
4.13459e-53
3.28286e-53
2.28601e-53
1.3386e-53
6.2576e-54
2.17112e-54
4.93979e-55
5.50451e-56
0
0
0
0
0
0
0
0
0
0
0
0
0
0
0
0
0
0
0
0
0
0
0
0
0
0
0
0
0
0
0
0
0
0
0
0
0
0
0
0
0
0
0
0
0
0
0
0
0
0
0
0
0
0
0
0
0
0
0
0
0
0
0
0
0
0
0
0
0
0
0
0
0
0
0
0
0
0
0
0
0
0
0
0
0
0
0
0
0
0
0
0
0
0
0
0
0
0
0
0
0
0
0
0
0
0
0
0
0
0
0
0
0
0
0
0
0
0
0
0
0
0
0
0
0
0
0
0
0
0
0
0
0
0
0
7.88198e-67
6.00838e-65
2.20127e-63
5.16002e-62
8.69197e-61
1.12028e-59
1.1486e-58
9.61551e-58
6.69456e-57
3.92834e-56
1.96201e-55
8.40163e-55
3.10115e-54
9.90564e-54
2.74585e-53
6.61982e-53
1.39068e-52
2.55173e-52
4.10479e-52
5.82687e-52
7.38177e-52
8.49603e-52
9.10578e-52
9.34517e-52
9.40521e-52
9.41244e-52
9.41244e-52
9.41244e-52
9.41244e-52
9.41244e-52
9.41244e-52
9.41244e-52
9.41244e-52
9.41244e-52
9.41244e-52
9.41244e-52
9.41244e-52
9.41244e-52
9.41244e-52
9.41244e-52
9.41244e-52
9.41244e-52
9.41244e-52
9.41244e-52
9.41244e-52
9.41244e-52
9.41243e-52
9.41243e-52
9.41237e-52
9.41204e-52
9.41047e-52
9.40403e-52
9.38142e-52
9.31338e-52
9.13785e-52
8.75045e-52
8.02176e-52
6.86071e-52
5.30765e-52
3.58557e-52
2.03067e-52
9.16411e-53
3.06653e-53
6.72707e-54
7.22876e-55
0
0
0
0
0
0
0
0
0
0
0
0
0
0
0
0
0
0
0
0
0
0
0
0
0
0
0
0
0
0
0
0
0
0
0
0
0
0
0
0
0
0
0
0
0
0
0
0
0
0
0
0
0
0
0
0
0
0
0
0
0
0
0
0
0
0
0
0
0
0
0
0
0
0
0
0
0
0
0
0
0
0
0
0
0
0
0
0
0
0
0
0
0
0
0
0
0
0
0
0
0
0
0
0
0
0
0
0
0
0
0
0
0
0
0
0
0
0
0
0
0
0
0
0
0
0
0
0
0
0
0
0
0
0
3.27405e-66
2.59438e-64
9.89534e-63
2.41875e-61
4.25599e-60
5.74078e-59
6.17251e-58
5.43099e-57
3.9837e-56
2.46926e-55
1.30643e-54
5.94443e-54
2.33925e-53
7.99435e-53
2.37985e-52
6.18505e-52
1.40587e-51
2.79983e-51
4.89758e-51
7.55602e-51
1.03565e-50
1.27648e-50
1.44123e-50
1.52746e-50
1.55991e-50
1.56772e-50
1.56863e-50
1.56863e-50
1.56863e-50
1.56863e-50
1.56863e-50
1.56863e-50
1.56863e-50
1.56863e-50
1.56863e-50
1.56863e-50
1.56863e-50
1.56863e-50
1.56863e-50
1.56863e-50
1.56863e-50
1.56863e-50
1.56863e-50
1.56863e-50
1.56863e-50
1.56863e-50
1.56863e-50
1.56863e-50
1.56862e-50
1.5686e-50
1.5685e-50
1.56803e-50
1.56629e-50
1.56063e-50
1.54483e-50
1.50678e-50
1.42804e-50
1.28864e-50
1.07887e-50
8.13025e-51
5.32975e-51
2.92145e-51
1.27401e-51
4.11637e-52
8.7175e-53
9.04508e-54
0
0
0
0
0
0
0
0
0
0
0
0
0
0
0
0
0
0
0
0
0
0
0
0
0
0
0
0
0
0
0
0
0
0
0
0
0
0
0
0
0
0
0
0
0
0
0
0
0
0
0
0
0
0
0
0
0
0
0
0
0
0
0
0
0
0
0
0
0
0
0
0
0
0
0
0
0
0
0
0
0
0
0
0
0
0
0
0
0
0
0
0
0
0
0
0
0
0
0
0
0
0
0
0
0
0
0
0
0
0
0
0
0
0
0
0
0
0
0
0
0
0
0
0
0
0
0
0
0
0
0
0
0
1.2975e-65
1.06722e-63
4.23113e-62
1.07664e-60
1.97532e-59
2.78302e-58
3.13134e-57
2.88901e-56
2.22696e-55
1.45405e-54
8.12467e-54
3.91514e-53
1.63658e-52
5.96038e-52
1.89738e-51
5.29189e-51
1.29545e-50
2.78775e-50
5.28311e-50
8.84082e-50
1.31242e-49
1.74218e-49
2.09497e-49
2.32581e-49
2.44162e-49
2.48346e-49
2.49314e-49
2.49422e-49
2.49422e-49
2.49422e-49
2.49422e-49
2.49422e-49
2.49422e-49
2.49422e-49
2.49422e-49
2.49422e-49
2.49422e-49
2.49422e-49
2.49422e-49
2.49422e-49
2.49422e-49
2.49422e-49
2.49422e-49
2.49422e-49
2.49422e-49
2.49422e-49
2.49422e-49
2.49422e-49
2.49422e-49
2.49421e-49
2.49414e-49
2.49383e-49
2.49259e-49
2.48826e-49
2.47525e-49
2.4413e-49
2.36468e-49
2.21545e-49
1.96591e-49
1.61014e-49
1.1818e-49
7.52046e-50
3.99257e-50
1.68408e-50
5.25978e-51
1.07659e-51
1.07987e-52
0
0
0
0
0
0
0
0
0
0
0
0
0
0
0
0
0
0
0
0
0
0
0
0
0
0
0
0
0
0
0
0
0
0
0
0
0
0
0
0
0
0
0
0
0
0
0
0
0
0
0
0
0
0
0
0
0
0
0
0
0
0
0
0
0
0
0
0
0
0
0
0
0
0
0
0
0
0
0
0
0
0
0
0
0
0
0
0
0
0
0
0
0
0
0
0
0
0
0
0
0
0
0
0
0
0
0
0
0
0
0
0
0
0
0
0
0
0
0
0
0
0
0
0
0
0
0
0
0
0
0
0
4.91195e-65
4.18813e-63
1.72347e-61
4.55831e-60
8.7056e-59
1.27881e-57
1.50277e-56
1.45075e-55
1.17249e-54
8.04401e-54
4.73384e-53
2.40864e-52
1.06602e-51
4.12271e-51
1.398e-50
4.16709e-50
1.0939e-49
2.5327e-49
5.17924e-49
9.3719e-49
1.50509e-48
2.15629e-48
2.77998e-48
3.26973e-48
3.57686e-48
3.72479e-48
3.77616e-48
3.78762e-48
3.78885e-48
3.78885e-48
3.78885e-48
3.78885e-48
3.78885e-48
3.78885e-48
3.78885e-48
3.78885e-48
3.78885e-48
3.78885e-48
3.78885e-48
3.78885e-48
3.78885e-48
3.78885e-48
3.78885e-48
3.78885e-48
3.78885e-48
3.78885e-48
3.78885e-48
3.78885e-48
3.78885e-48
3.78884e-48
3.7888e-48
3.78861e-48
3.78779e-48
3.78473e-48
3.77487e-48
3.74718e-48
3.67946e-48
3.53558e-48
3.27093e-48
2.85166e-48
2.28376e-48
1.63256e-48
1.00887e-48
5.19119e-49
2.11989e-49
6.40665e-50
1.26881e-50
1.23168e-51
0
0
0
0
0
0
0
0
0
0
0
0
0
0
0
0
0
0
0
0
0
0
0
0
0
0
0
0
0
0
0
0
0
0
0
0
0
0
0
0
0
0
0
0
0
0
0
0
0
0
0
0
0
0
0
0
0
0
0
0
0
0
0
0
0
0
0
0
0
0
0
0
0
0
0
0
0
0
0
0
0
0
0
0
0
0
0
0
0
0
0
0
0
0
0
0
0
0
0
0
0
0
0
0
0
0
0
0
0
0
0
0
0
0
0
0
0
0
0
0
0
0
0
0
0
0
0
0
0
0
0
1.77846e-64
1.56996e-62
6.69689e-61
1.83838e-59
3.64916e-58
5.57961e-57
6.83577e-56
6.89172e-55
5.82751e-54
4.19129e-53
2.59133e-52
1.38841e-51
6.48687e-51
2.65545e-50
9.55852e-50
3.03365e-49
8.50601e-49
2.11022e-48
4.6379e-48
9.04283e-48
1.56725e-47
2.42252e-47
3.35872e-47
4.21641e-47
4.86188e-47
5.25049e-47
5.43047e-47
5.49067e-47
5.50361e-47
5.50496e-47
5.50496e-47
5.50496e-47
5.50496e-47
5.50496e-47
5.50496e-47
5.50496e-47
5.50496e-47
5.50496e-47
5.50496e-47
5.50496e-47
5.50496e-47
5.50496e-47
5.50496e-47
5.50496e-47
5.50496e-47
5.50496e-47
5.50496e-47
5.50496e-47
5.50496e-47
5.50495e-47
5.50493e-47
5.50482e-47
5.50431e-47
5.5023e-47
5.4954e-47
5.47462e-47
5.4199e-47
5.29393e-47
5.04117e-47
4.60067e-47
3.9377e-47
3.08243e-47
2.14624e-47
1.28854e-47
6.43073e-48
2.54463e-48
7.44871e-49
1.42882e-49
1.34373e-50
0
0
0
0
0
0
0
0
0
0
0
0
0
0
0
0
0
0
0
0
0
0
0
0
0
0
0
0
0
0
0
0
0
0
0
0
0
0
0
0
0
0
0
0
0
0
0
0
0
0
0
0
0
0
0
0
0
0
0
0
0
0
0
0
0
0
0
0
0
0
0
0
0
0
0
0
0
0
0
0
0
0
0
0
0
0
0
0
0
0
0
0
0
0
0
0
0
0
0
0
0
0
0
0
0
0
0
0
0
0
0
0
0
0
0
0
0
0
0
0
0
0
0
0
0
0
0
0
0
0
6.16534e-64
5.62824e-62
2.48553e-60
7.0724e-59
1.45702e-57
2.31535e-56
2.95242e-55
3.10301e-54
2.73994e-53
2.06158e-52
1.33605e-51
7.51951e-51
3.69884e-50
1.59805e-49
6.08704e-49
2.05e-48
6.11726e-48
1.61997e-47
3.81189e-47
7.97911e-47
1.48784e-46
2.47683e-46
3.69475e-46
4.97e-46
6.0897e-46
6.89867e-46
7.36701e-46
7.57588e-46
7.64326e-46
7.65724e-46
7.65865e-46
7.65865e-46
7.65865e-46
7.65865e-46
7.65865e-46
7.65865e-46
7.65865e-46
7.65865e-46
7.65865e-46
7.65865e-46
7.65865e-46
7.65865e-46
7.65865e-46
7.65865e-46
7.65865e-46
7.65865e-46
7.65865e-46
7.65865e-46
7.65865e-46
7.65865e-46
7.65863e-46
7.65857e-46
7.65828e-46
7.65705e-46
7.65256e-46
7.63815e-46
7.59747e-46
7.49665e-46
7.27746e-46
6.86074e-46
6.1708e-46
5.18182e-46
3.96389e-46
2.68865e-46
1.56895e-46
7.59979e-47
2.91642e-47
8.27658e-48
1.53921e-48
1.40376e-49
0
0
0
0
0
0
0
0
0
0
0
0
0
0
0
0
0
0
0
0
0
0
0
0
0
0
0
0
0
0
0
0
0
0
0
0
0
0
0
0
0
0
0
0
0
0
0
0
0
0
0
0
0
0
0
0
0
0
0
0
0
0
0
0
0
0
0
0
0
0
0
0
0
0
0
0
0
0
0
0
0
0
0
0
0
0
0
0
0
0
0
0
0
0
0
0
0
0
0
0
0
0
0
0
0
0
0
0
0
0
0
0
0
0
0
0
0
0
0
0
0
0
0
0
0
0
0
0
0
2.04848e-63
1.93174e-61
8.82174e-60
2.59865e-58
5.549e-57
9.15139e-56
1.21273e-54
1.32654e-53
1.22098e-52
9.59255e-52
6.50289e-51
3.83589e-50
1.98173e-49
9.01253e-49
3.62228e-48
1.29051e-47
4.08482e-47
1.15067e-46
2.88837e-46
6.46746e-46
1.2932e-45
2.31257e-45
3.70743e-45
5.35057e-45
6.99944e-45
8.38934e-45
9.35496e-45
9.8933e-45
1.01248e-44
1.01969e-44
1.02114e-44
1.02128e-44
1.02128e-44
1.02128e-44
1.02128e-44
1.02128e-44
1.02128e-44
1.02128e-44
1.02128e-44
1.02128e-44
1.02128e-44
1.02128e-44
1.02128e-44
1.02128e-44
1.02128e-44
1.02128e-44
1.02128e-44
1.02128e-44
1.02128e-44
1.02128e-44
1.02128e-44
1.02128e-44
1.02126e-44
1.02119e-44
1.02092e-44
1.01999e-44
1.0172e-44
1.00978e-44
9.92399e-45
9.56608e-45
8.91963e-45
7.90026e-45
6.5054e-45
4.86226e-45
3.21339e-45
1.82349e-45
8.57871e-46
3.19526e-46
8.79901e-47
1.58792e-47
1.40567e-48
0
0
0
0
0
0
0
0
0
0
0
0
0
0
0
0
0
0
0
0
0
0
0
0
0
0
0
0
0
0
0
0
0
0
0
0
0
0
0
0
0
0
0
0
0
0
0
0
0
0
0
0
0
0
0
0
0
0
0
0
0
0
0
0
0
0
0
0
0
0
0
0
0
0
0
0
0
0
0
0
0
0
0
0
0
0
0
0
0
0
0
0
0
0
0
0
0
0
0
0
0
0
0
0
0
0
0
0
0
0
0
0
0
0
0
0
0
0
0
0
0
0
0
0
0
0
0
0
6.52954e-63
6.35414e-61
2.99744e-59
9.13039e-58
2.01831e-56
3.44991e-55
4.74446e-54
5.39305e-53
5.1659e-52
4.23028e-51
2.9941e-50
1.84726e-49
1.0001e-48
4.77614e-48
2.02024e-47
7.5927e-47
2.54159e-46
7.59134e-46
2.02593e-45
4.83593e-45
1.03345e-44
1.97935e-44
3.40317e-44
5.26685e-44
7.37088e-44
9.39789e-44
1.10409e-43
1.21402e-43
1.27311e-43
1.29766e-43
1.30505e-43
1.30648e-43
1.30662e-43
1.30662e-43
1.30662e-43
1.30662e-43
1.30662e-43
1.30662e-43
1.30662e-43
1.30662e-43
1.30662e-43
1.30662e-43
1.30662e-43
1.30662e-43
1.30662e-43